# vtk DataFile Version 4.2
vtk output
ASCII
DATASET RECTILINEAR_GRID
DIMENSIONS 2 3 2
X_COORDINATES 2 double
0 2 
Y_COORDINATES 3 double
0 1 2 
Z_COORDINATES 2 double
0 1 
POINT_DATA 12
FIELD FieldData 1
Log%20Hydraulic%20Conductivity 1 12 float
0 1 2 3 4 5 6 7 8 
9 10 11 
